32
	Energy:     117.4601644
C         -4.25331       -0.12773        2.21215
C         -4.05468       -0.68590        0.85512
C         -2.79847       -0.66099        0.15479
C         -3.11408       -0.83631       -1.23792
C         -2.15743       -0.86386       -2.36401
N         -4.45753       -0.91536       -1.45068
N         -5.13513       -0.89612       -0.09813
N         -1.63666       -0.42098        0.81995
N         -0.39292       -0.20587        0.04234
C          0.72145        0.02858        0.78225
C          1.83776        0.58399        0.13917
C          3.03428        0.88184        0.81934
N          4.08789        1.59435        0.14931
C          3.76853        3.01919        0.23376
C          3.12553        0.62389        2.18678
C          2.04444        0.04562        2.84878
C          0.86437       -0.24338        2.15058
H         -4.00534        0.93836        2.23823
H         -3.63113       -0.64950        2.94633
H         -5.29566       -0.23635        2.52954
H         -1.66831        0.10774       -2.48775
H         -2.65554       -1.09789       -3.31197
H         -1.39061       -1.63005       -2.21018
H         -5.78354       -0.12186       -0.07937
H          1.72260        0.81038       -0.91722
H          3.97721        1.30139       -0.82370
H          3.76449        3.37019        1.27189
H          2.80820        3.25969       -0.23679
H          4.54309        3.58226       -0.29707
H          4.02721        0.87302        2.72846
H          2.08942       -0.17358        3.90706
H          0.01300       -0.68352        2.66656
