26
	Energy:      76.7293561
F         -1.26460        3.06980       -1.84910
C         -2.03760        2.28110       -0.59840
C         -3.66390        2.06560       -0.78760
C         -4.39610        0.99860        0.23660
C         -3.55970        0.35720        1.51350
C         -2.02140        0.85520        1.84910
C         -1.19790        1.73460        0.72130
N          0.41660        2.17010        0.99700
N          1.53620        1.22050        1.25390
C          1.81110       -0.25800        0.47070
C          3.33930       -0.44640       -0.13050
N          4.39610        0.86360       -0.10170
C          3.86820       -1.87230       -0.76710
C          2.74980       -3.06980       -0.98000
C          1.17370       -2.88040       -0.51820
C          0.74850       -1.51830        0.31270
H         -4.19646        2.57346       -1.51112
H         -5.38017        0.72982        0.08041
H         -4.00441       -0.36137        2.10589
H         -1.58087        0.61961        2.75213
H          4.10221        1.72499        0.27364
H          5.30805        0.76835       -0.46019
H          4.85839       -2.01138       -1.02245
H          3.04292       -3.95965       -1.41276
H          0.46917       -3.59963       -0.74487
H         -0.18940       -1.45168        0.73806
